VARIABLES="w (rad/s)"  
"abs(F   1   1)" "angle(F   1   1)"
"abs(F   1   2)" "angle(F   1   2)"
"abs(F   1   3)" "angle(F   1   3)"
"abs(F   1   4)" "angle(F   1   4)"
"abs(F   1   5)" "angle(F   1   5)"
"abs(F   1   6)" "angle(F   1   6)"
Zone t="Diffraction force - beta =   0.000 deg",I=    50,F=POINT
  0.5000000E-01  0.1433044E+06 -0.1562471E+01  0.2459123E+02  0.9562279E+00  0.6280611E+05 -0.3130970E+01  0.4880511E+03 -0.1659550E+01  0.6832518E+06 -0.1589034E+01  0.1200552E+04 -0.1743883E+01
  0.1102041E+00  0.3230668E+06 -0.1551435E+01  0.8251150E+02  0.5741034E+00  0.3018868E+06 -0.3132040E+01  0.1124028E+04 -0.1755599E+01  0.1296842E+07 -0.1614593E+01  0.2847464E+04 -0.1934785E+01
  0.1704082E+00  0.5210384E+06 -0.1537857E+01  0.1818907E+03  0.4000260E+00  0.7121691E+06 -0.3133749E+01  0.1871520E+04 -0.1830807E+01  0.1392008E+07 -0.1655447E+01  0.4940500E+04 -0.2095043E+01
  0.2306122E+00  0.7522918E+06 -0.1518960E+01  0.3273465E+03  0.3074887E+00  0.1277624E+07 -0.3136781E+01  0.2789956E+04 -0.1876901E+01  0.5458441E+06 -0.1846728E+01  0.7672394E+04 -0.2223456E+01
  0.2908163E+00  0.1033214E+07 -0.1489174E+01  0.5247352E+03  0.2519384E+00  0.1968978E+07 -0.3141242E+01  0.3962302E+04 -0.1889848E+01  0.1967548E+07  0.1580601E+01  0.1126319E+05 -0.2332638E+01
  0.3510204E+00  0.1362670E+07 -0.1439391E+01  0.7779251E+03  0.2141237E+00  0.2741597E+07  0.3139494E+01  0.5290522E+04 -0.1865122E+01  0.7089293E+07  0.1492362E+01  0.1578359E+05 -0.2441451E+01
  0.4112245E+00  0.1696126E+07 -0.1359328E+01  0.1085436E+04  0.1838992E+00  0.3546822E+07 -0.3131980E+01  0.6591199E+04 -0.1815946E+01  0.1589908E+08  0.1449039E+01  0.2122456E+05 -0.2569150E+01
  0.4714286E+00  0.1963439E+07 -0.1238115E+01  0.1433918E+04  0.1633920E+00  0.4299578E+07 -0.3088127E+01  0.7303119E+04 -0.1755383E+01  0.2881290E+08  0.1421919E+01  0.2713680E+05 -0.2706866E+01
  0.5316327E+00  0.2120520E+07 -0.1058703E+01  0.1764878E+04  0.1607594E+00  0.4808820E+07 -0.2997884E+01  0.6703622E+04 -0.1674124E+01  0.4505089E+08  0.1400859E+01  0.3250462E+05 -0.2846877E+01
  0.5918368E+00  0.2201855E+07 -0.7960466E+00  0.1953293E+04  0.1621378E+00  0.4813271E+07 -0.2868907E+01  0.4060115E+04 -0.1541336E+01  0.6285217E+08  0.1372464E+01  0.3424306E+05 -0.3016301E+01
  0.6520408E+00  0.2362280E+07 -0.4401838E+00  0.1913233E+04  0.1139100E+00  0.4260454E+07 -0.2731389E+01  0.5821023E+03  0.1740219E+01  0.8113888E+08  0.1331080E+01  0.3128720E+05  0.2922918E+01
  0.7122449E+00  0.2795027E+07 -0.3739478E-01  0.1727317E+04 -0.3817438E-01  0.3409266E+07 -0.2603956E+01  0.6469876E+04  0.1839474E+01  0.1001336E+09  0.1313749E+01  0.3369671E+05  0.2266310E+01
  0.7724490E+00  0.3347064E+07  0.3423428E+00  0.1633731E+04 -0.2475313E+00  0.2571599E+07 -0.2475701E+01  0.1251236E+05  0.2119756E+01  0.1118948E+09  0.1391532E+01  0.4974958E+05  0.1878204E+01
  0.8326531E+00  0.3439235E+07  0.5967786E+00  0.1477381E+04 -0.2252874E+00  0.1978172E+07 -0.2332327E+01  0.1286998E+05  0.2600150E+01  0.9923281E+08  0.1511965E+01  0.5314243E+05  0.1782228E+01
  0.8928571E+00  0.3061148E+07  0.6247368E+00  0.9554120E+03  0.1846169E+00  0.1884838E+07 -0.2169122E+01  0.8341073E+04 -0.2954608E+01  0.6831469E+08  0.1527251E+01  0.3099732E+05  0.1425324E+01
  0.9530612E+00  0.2650929E+07  0.4562851E+00  0.9531603E+03  0.1512958E+01  0.2496538E+07 -0.1742858E+01  0.1109761E+05 -0.1786165E+01  0.3891794E+08  0.1274359E+01  0.4762346E+05 -0.4622611E-01
  0.1013265E+01  0.2379374E+07  0.2710513E+00  0.1549878E+04  0.2286128E+01  0.2308376E+07 -0.1122424E+01  0.2106527E+05 -0.1184356E+01  0.2791640E+08  0.7416913E+00  0.7426852E+05  0.2693144E-01
  0.1073469E+01  0.1640087E+07  0.4219324E+00  0.1362059E+04  0.2513158E+01  0.1710768E+07 -0.8610165E+00  0.2570119E+05 -0.9306358E+00  0.2305058E+08  0.8770776E+00  0.6756498E+05  0.1038539E-01
  0.1133673E+01  0.4737031E+06  0.3050989E+01  0.1267604E+04  0.2024939E+01  0.1229581E+07 -0.7646613E+00  0.2907173E+05 -0.1026216E+01  0.1874085E+08  0.2633856E+01  0.3886082E+05 -0.4563339E-01
  0.1193877E+01  0.1526548E+07 -0.2314119E+01  0.1361977E+04  0.2207669E+01  0.8092545E+06 -0.7448791E+00  0.3345959E+05 -0.8183868E+00  0.3053648E+08 -0.2680570E+01  0.1220472E+05 -0.8108960E+00
  0.1254082E+01  0.1194476E+07 -0.2154705E+01  0.7764348E+03  0.2636992E+01  0.5165074E+06 -0.8967726E+00  0.2869290E+05 -0.4817595E+00  0.2736343E+08 -0.2489940E+01  0.6558388E+04 -0.1123361E+01
  0.1314286E+01  0.3610592E+06 -0.2818357E+01  0.4638630E+03 -0.1071731E+01  0.3628560E+06 -0.6296415E+00  0.1653948E+05  0.4196026E-01  0.1774846E+08 -0.2709493E+01  0.4438993E+05  0.2579637E+01
  0.1374490E+01  0.5152795E+06  0.3040998E+01  0.1544497E+04  0.7128713E+00  0.1618837E+06 -0.3033632E+00  0.7387840E+04 -0.5937566E+00  0.1564455E+08 -0.2897584E+01  0.6505364E+05 -0.3124033E+01
  0.1434694E+01  0.9866870E+06 -0.1265864E+01  0.2890585E+04  0.2230979E+01  0.1021605E+06  0.2099722E+00  0.3496038E+05 -0.3312178E+00  0.1299714E+08 -0.1857703E+01  0.8993991E+05 -0.2646954E+01
  0.1494898E+01  0.1610291E+07 -0.4797885E+00  0.2612539E+04 -0.2523325E+01  0.1333802E+06  0.5483913E+00  0.5030034E+05  0.7007424E+00  0.1562637E+08 -0.6609496E+00  0.7084836E+05 -0.1988490E+01
  0.1555102E+01  0.1130924E+07 -0.2429518E+00  0.2743024E+04 -0.1789432E+01  0.1412969E+06  0.1358959E+01  0.4724743E+05  0.1195568E+01  0.1273016E+08 -0.3172662E+00  0.3588846E+05 -0.2906868E+01
  0.1615306E+01  0.6152009E+06 -0.3488505E+00  0.4129048E+04 -0.1952091E+01  0.3774709E+05  0.6614389E+00  0.5708245E+05  0.1136987E+01  0.8430609E+07 -0.4117318E+00  0.2594616E+05  0.4482017E-01
  0.1675510E+01  0.7752261E+06 -0.1675074E+00  0.7228518E+04 -0.1418794E+01  0.3015183E+05  0.2135086E+00  0.8669355E+05  0.1791042E+01  0.1072179E+08 -0.3168592E+00  0.1134045E+06 -0.6234846E-01
  0.1735714E+01  0.4032517E+06  0.5785879E+00  0.2782626E+04 -0.8870324E-01  0.5055899E+04  0.1102108E+01  0.4747626E+05 -0.3000040E+01  0.5077462E+07  0.3292721E+00  0.1584115E+06  0.4286670E+00
  0.1795918E+01  0.3879262E+06 -0.5219622E+00  0.1121114E+04  0.9242463E+00  0.4066689E+05 -0.2816492E+01  0.2018486E+05 -0.2390245E+01  0.4480495E+07 -0.5634179E+00  0.1088118E+06 -0.6496844E+00
  0.1856122E+01  0.5087037E+06 -0.1558893E+00  0.6060883E+04 -0.3217532E+00  0.1898509E+05 -0.2286260E+01  0.7385880E+05  0.2806087E+01  0.5761936E+07 -0.1162209E+00  0.4819258E+05 -0.4277382E+00
  0.1916327E+01  0.6581423E+06  0.1368828E+01  0.2213256E+05  0.1023696E+01  0.4240283E+04 -0.1243589E+01  0.2535988E+06 -0.2094439E+01  0.7787700E+07  0.1380601E+01  0.4220925E+06  0.2260361E+01
  0.1976531E+01  0.4545811E+06  0.8177854E+00  0.3967478E+04 -0.1529118E+01  0.7478458E+05 -0.4543877E+00  0.5203952E+05  0.1384325E+01  0.5404370E+07  0.8407750E+00  0.3393340E+06  0.1342150E+01
  0.2036735E+01  0.6218775E+06  0.5596084E+00  0.1269336E+04  0.2464248E+01  0.1596746E+05 -0.3414696E+00  0.3439415E+05 -0.7193061E+00  0.7105274E+07  0.5450028E+00  0.8014058E+05 -0.2481200E+01
  0.2096939E+01  0.2262230E+06  0.1927497E+01  0.6609071E+04 -0.2811321E+01  0.1319059E+05 -0.1611017E+01  0.9446052E+05  0.1760626E+00  0.2816358E+07  0.2116553E+01  0.3514729E+05 -0.1669824E+01
  0.2157143E+01  0.6296538E+06  0.2704785E+01  0.3555766E+04 -0.1357183E+01  0.8473236E+05 -0.1065725E+01  0.2350377E+05  0.5604398E+00  0.7738719E+07  0.2719778E+01  0.1408223E+06 -0.1242015E+01
  0.2217347E+01  0.7688852E+06  0.2719985E+01  0.4863156E+04 -0.1304737E+01  0.4909785E+05  0.2080359E+01  0.1104515E+06  0.1722274E+01  0.9306177E+07  0.2731514E+01  0.1502209E+06 -0.1423173E+01
  0.2277551E+01  0.4378719E+06 -0.2159482E+01  0.1215747E+05 -0.1177470E+01  0.8834157E+04  0.1649780E+01  0.1917800E+06  0.1880302E+01  0.5768878E+07 -0.2106380E+01  0.1017361E+06 -0.7847109E-01
  0.2337755E+01  0.5483366E+06 -0.1153869E+01  0.6306469E+04  0.5330343E+00  0.9998791E+04  0.1817292E+01  0.9476634E+05 -0.2914760E+01  0.7017529E+07 -0.1165726E+01  0.2954377E+06  0.7236698E+00
  0.2397959E+01  0.4063681E+06 -0.1346952E+01  0.3989678E+04  0.4503796E+00  0.1839006E+05  0.1243652E+01  0.9698754E+05 -0.3079944E+01  0.5189996E+07 -0.1264206E+01  0.1400920E+06  0.2097450E+01
  0.2458163E+01  0.5014775E+06 -0.1531931E+01  0.1361859E+05 -0.2876189E+01  0.1263860E+06  0.1038651E+01  0.2317732E+06 -0.1864384E+00  0.4248110E+07 -0.1313584E+01  0.2002784E+07 -0.3925329E+00
  0.2518367E+01  0.7197817E+06  0.7043894E+00  0.5368159E+04 -0.6648657E+00  0.5789976E+04  0.1581758E+01  0.6283284E+05  0.1753150E+01  0.8675215E+07  0.7273377E+00  0.1223331E+06 -0.1057037E+01
  0.2578571E+01  0.3265342E+06  0.9278165E+00  0.3323947E+04  0.2055681E+01  0.4497730E+04 -0.2232161E+01  0.4555351E+05 -0.8358798E+00  0.3900940E+07  0.8622121E+00  0.2056883E+06  0.2394374E+00
  0.2638775E+01  0.4555912E+06  0.3122715E+01  0.8334229E+04  0.6322224E+00  0.1038932E+05 -0.2447342E+01  0.1061120E+06 -0.2695098E+01  0.6018726E+07 -0.3094098E+01  0.3024019E+06  0.5572060E-01
  0.2698980E+01  0.2890392E+06  0.2764390E+01  0.1614035E+05  0.1433323E+01  0.1746377E+04 -0.8378415E+00  0.1861660E+06 -0.1600050E+01  0.3854640E+07  0.2829437E+01  0.1553644E+06  0.2828388E+01
  0.2759184E+01  0.1242132E+06 -0.2633264E+01  0.3049628E+05 -0.2303286E+01  0.7002516E+04 -0.4174227E+00  0.4255864E+06  0.7099511E+00  0.2089805E+07 -0.2308992E+01  0.4419998E+06  0.2221990E+01
  0.2819388E+01  0.1105045E+06 -0.2313192E+01  0.1636252E+05 -0.1885809E+01  0.4532848E+04 -0.1210332E+01  0.2869413E+06  0.1312765E+01  0.1787008E+07 -0.1991925E+01  0.4655629E+06  0.1306484E+01
  0.2879592E+01  0.1682286E+06 -0.2539058E+01  0.2789253E+05 -0.1104666E+01  0.1138056E+05 -0.2353930E+01  0.3684798E+06  0.2370200E+01  0.2128618E+07 -0.2550455E+01  0.5958204E+06 -0.3406787E+00
  0.2939796E+01  0.1694000E+06 -0.2996336E+01  0.2036086E+05  0.1874444E+01  0.2057895E+05  0.9017457E+00  0.2757133E+06 -0.1441590E+01  0.2240925E+07 -0.3085708E+01  0.5416702E+06 -0.9313384E+00
  0.3000000E+01  0.1606849E+06 -0.2406226E+01  0.9261242E+04  0.1817046E+01  0.1142227E+05  0.2030826E+01  0.1460126E+06 -0.1436913E+01  0.1829410E+07 -0.2063960E+01  0.3046007E+06  0.2078309E+01
