VARIABLES="w (rad/s)"  
"abs(F   1   1)" "angle(F   1   1)"
"abs(F   1   2)" "angle(F   1   2)"
"abs(F   1   3)" "angle(F   1   3)"
"abs(F   1   4)" "angle(F   1   4)"
"abs(F   1   5)" "angle(F   1   5)"
"abs(F   1   6)" "angle(F   1   6)"
Zone t="Excitation force - beta =   0.000 deg",I=    50,F=POINT
  0.5000000E-01  0.3722023E+06 -0.1567585E+01  0.2542199E+02  0.9095787E+00  0.4266348E+07 -0.1492307E-03  0.3327358E+03 -0.1677484E+01  0.6370768E+07 -0.1585398E+01  0.1182821E+04 -0.1757732E+01
  0.1102041E+00  0.8371293E+06 -0.1563289E+01  0.8204543E+02  0.5717158E+00  0.3830942E+07 -0.6607344E-03  0.8063877E+03 -0.1848013E+01  0.1390685E+08 -0.1604215E+01  0.2865934E+04 -0.2010963E+01
  0.1704082E+00  0.1344123E+07 -0.1557889E+01  0.1807207E+03  0.3906038E+00  0.3078896E+07 -0.1327133E-02  0.1411048E+04 -0.1903921E+01  0.2111786E+08 -0.1626250E+01  0.5034171E+04 -0.2185557E+01
  0.2306122E+00  0.1926458E+07 -0.1550117E+01  0.3242535E+03  0.2932718E+00  0.2031493E+07 -0.7595757E-03  0.2252397E+04 -0.1944396E+01  0.2771769E+08 -0.1654408E+01  0.7863062E+04 -0.2329314E+01
  0.2908163E+00  0.2616600E+07 -0.1537297E+01  0.5193213E+03  0.2315071E+00  0.7307032E+06  0.1587702E-01  0.3447438E+04 -0.1935117E+01  0.3302807E+08 -0.1693171E+01  0.1143781E+05 -0.2440064E+01
  0.3510204E+00  0.3398842E+07 -0.1514636E+01  0.7678540E+03  0.1907617E+00  0.7536012E+06  0.3094425E+01  0.4980473E+04 -0.1892630E+01  0.3535240E+08 -0.1749972E+01  0.1585734E+05 -0.2549570E+01
  0.4112245E+00  0.4152549E+07 -0.1475623E+01  0.1066808E+04  0.1605474E+00  0.2326760E+07  0.3128808E+01  0.6799605E+04 -0.1848189E+01  0.3187777E+08 -0.1844805E+01  0.2091569E+05 -0.2675408E+01
  0.4714286E+00  0.4696934E+07 -0.1411447E+01  0.1404570E+04  0.1434705E+00  0.3844409E+07 -0.3112643E+01  0.8393676E+04 -0.1814634E+01  0.2056652E+08 -0.2079998E+01  0.2616591E+05 -0.2810092E+01
  0.5316327E+00  0.4891846E+07 -0.1305835E+01  0.1721960E+04  0.1486683E+00  0.5036072E+07 -0.3042522E+01  0.8995311E+04 -0.1807838E+01  0.9902976E+07  0.2744395E+01  0.3074083E+05 -0.2953214E+01
  0.5918368E+00  0.4727042E+07 -0.1125923E+01  0.1902670E+04  0.1628271E+00  0.5550102E+07 -0.2954948E+01  0.7741378E+04 -0.1874352E+01  0.3295363E+08  0.1692294E+01  0.3183635E+05 -0.3139346E+01
  0.6520408E+00  0.4443840E+07 -0.8191079E+00  0.1862732E+04  0.1345243E+00  0.5279186E+07 -0.2877451E+01  0.5393771E+04 -0.2326018E+01  0.6624881E+08  0.1459468E+01  0.2955608E+05  0.2750854E+01
  0.7122449E+00  0.4573825E+07 -0.3755055E+00  0.1677362E+04  0.1430963E-01  0.4493310E+07 -0.2818898E+01  0.6366041E+04  0.3001039E+01  0.1037039E+09  0.1351826E+01  0.3528079E+05  0.2100331E+01
  0.7724490E+00  0.5300764E+07  0.5742577E-01  0.1568992E+04 -0.1556040E+00  0.3548306E+07 -0.2750916E+01  0.1252419E+05  0.2729861E+01  0.1329894E+09  0.1347545E+01  0.5336068E+05  0.1787496E+01
  0.8326531E+00  0.5920636E+07  0.3072006E+00  0.1424111E+04 -0.7241353E-01  0.2749830E+07 -0.2618348E+01  0.1528965E+05  0.3064404E+01  0.1314579E+09  0.1352557E+01  0.5748206E+05  0.1717078E+01
  0.8928571E+00  0.6090630E+07  0.3529191E+00  0.1029095E+04  0.4727774E+00  0.2481464E+07 -0.2354409E+01  0.1221219E+05 -0.2582700E+01  0.1059293E+09  0.1229400E+01  0.3619969E+05  0.1397984E+01
  0.9530612E+00  0.5827168E+07  0.2897948E+00  0.1309166E+04  0.1574550E+01  0.3051010E+07 -0.1834281E+01  0.1532494E+05 -0.1661235E+01  0.7920490E+08  0.9445499E+00  0.4850257E+05  0.4602170E-01
  0.1013265E+01  0.4972324E+07  0.2264752E+00  0.1968155E+04  0.2195668E+01  0.2943238E+07 -0.1265941E+01  0.2679199E+05 -0.1091793E+01  0.6121528E+08  0.6551782E+00  0.7471460E+05  0.5925632E-01
  0.1073469E+01  0.3016129E+07  0.3775536E+00  0.1859840E+04  0.2368260E+01  0.2441146E+07 -0.1081186E+01  0.3349116E+05 -0.8455299E+00  0.3886806E+08  0.8092734E+00  0.6725048E+05 -0.9317035E-02
  0.1133673E+01  0.9274901E+06  0.2446461E+01  0.1901435E+04  0.2042418E+01  0.1958672E+07 -0.1042151E+01  0.3688560E+05 -0.9225379E+00  0.2892279E+08  0.2571023E+01  0.3774803E+05 -0.2068752E+00
  0.1193877E+01  0.2647278E+07 -0.3028587E+01  0.2007042E+04  0.2180954E+01  0.1435992E+07 -0.1044896E+01  0.3974535E+05 -0.7913120E+00  0.5288898E+08 -0.3024723E+01  0.1858061E+05 -0.1365910E+01
  0.1254082E+01  0.2937884E+07  0.3130116E+01  0.1287750E+04  0.2463886E+01  0.9966184E+06 -0.1081710E+01  0.3076792E+05 -0.5183946E+00  0.5538807E+08 -0.3020612E+01  0.1551814E+05 -0.1875064E+01
  0.1314286E+01  0.2525956E+07  0.2874580E+01  0.2367867E+03 -0.1886116E+01  0.6664101E+06 -0.7974228E+00  0.1440813E+05  0.9694951E-01  0.4603478E+08  0.3119802E+01  0.4997192E+05  0.2728982E+01
  0.1374490E+01  0.1817580E+07 -0.3076207E+01  0.1220298E+04  0.7845029E+00  0.3804302E+06 -0.4266703E+00  0.3091739E+04 -0.4821419E+00  0.3430980E+08 -0.3001325E+01  0.6999583E+05  0.3097527E+01
  0.1434694E+01  0.2569619E+07 -0.1637519E+01  0.2814623E+04  0.2428165E+01  0.2846473E+06 -0.2666752E-01  0.3274062E+05 -0.2769860E+00  0.3132672E+08 -0.1925276E+01  0.8445777E+05 -0.2739616E+01
  0.1494898E+01  0.3878196E+07 -0.1206906E+01  0.3258718E+04 -0.2443695E+01  0.2670447E+06  0.2516400E+00  0.5151131E+05  0.6683102E+00  0.4265290E+08 -0.1301486E+01  0.6111636E+05 -0.1952614E+01
  0.1555102E+01  0.3609167E+07 -0.1261312E+01  0.3316459E+04 -0.1816247E+01  0.1805268E+06  0.8665429E+00  0.4548477E+05  0.1067644E+01  0.4139472E+08 -0.1272839E+01  0.3320854E+05 -0.2869505E+01
  0.1615306E+01  0.2572616E+07 -0.1277238E+01  0.4463312E+04 -0.1878448E+01  0.6911357E+05  0.3316207E+00  0.5483882E+05  0.1030678E+01  0.3078506E+08 -0.1259804E+01  0.1958428E+05 -0.4972416E+00
  0.1675510E+01  0.1804938E+07 -0.5186788E+00  0.7721211E+04 -0.1333696E+01  0.3577438E+05  0.2154789E+00  0.8648951E+05  0.1782605E+01  0.2257804E+08 -0.5877544E+00  0.9450282E+05 -0.2321449E+00
  0.1735714E+01  0.1998593E+07  0.2607358E+00  0.3957881E+04 -0.1521910E+00  0.6677842E+04  0.1748971E+01  0.5088091E+05  0.3114612E+01  0.2298650E+08  0.2119109E+00  0.1338808E+06  0.4172248E+00
  0.1795918E+01  0.2076051E+07  0.1292118E+00  0.2033987E+04  0.3541740E+00  0.4207313E+05 -0.2827743E+01  0.2286321E+05 -0.3103151E+01  0.2354543E+08  0.1269426E+00  0.1113532E+06 -0.7235950E+00
  0.1856122E+01  0.1295244E+07  0.7425024E-01  0.6932871E+04 -0.2230005E+00  0.2057226E+05 -0.2110660E+01  0.8803530E+05  0.2772219E+01  0.1498336E+08  0.9603041E-01  0.7546195E+05 -0.4245878E+00
  0.1916327E+01  0.8744515E+06  0.2086713E+01  0.2362004E+05  0.1027568E+01  0.1063652E+05 -0.1196487E+01  0.2701562E+06 -0.2133436E+01  0.1026375E+08  0.2080562E+01  0.3833208E+06  0.2207334E+01
  0.1976531E+01  0.1100204E+07  0.2560725E+01  0.1922946E+04 -0.1277521E+01  0.7862787E+05 -0.5251533E+00  0.2523753E+05  0.1976612E+01  0.1306061E+08  0.2562013E+01  0.3369686E+06  0.1249943E+01
  0.2036735E+01  0.5249254E+06  0.2323381E+01  0.3210807E+04  0.1935162E+01  0.1792666E+05 -0.6087621E+00  0.6256208E+05 -0.1333879E+01  0.6317540E+07  0.2386983E+01  0.6916571E+05 -0.2684765E+01
  0.2096939E+01  0.5562479E+06 -0.2206754E+01  0.7541689E+04 -0.3049860E+01  0.1514400E+05 -0.1486809E+01  0.1075399E+06 -0.1637733E+00  0.7088278E+07 -0.2276306E+01  0.2601804E+05  0.2472489E+01
  0.2157143E+01  0.1053660E+07 -0.2149733E+01  0.3610623E+04 -0.2104062E+01  0.8801892E+05 -0.1008361E+01  0.6419229E+05 -0.1035399E+00  0.1285870E+08 -0.2160130E+01  0.9208153E+05 -0.1233222E+01
  0.2217347E+01  0.8912369E+06 -0.2449591E+01  0.5574158E+04 -0.1886819E+01  0.4601322E+05  0.1957109E+01  0.1186811E+06  0.1215180E+01  0.1105414E+08 -0.2428801E+01  0.1561626E+06 -0.1520460E+01
  0.2277551E+01  0.6780078E+06 -0.1677468E+01  0.1317076E+05 -0.1342253E+01  0.1076888E+05  0.1452145E+01  0.2124687E+06  0.1665799E+01  0.9052941E+07 -0.1677495E+01  0.9914741E+05 -0.7681964E+00
  0.2337755E+01  0.7596040E+06 -0.8679686E+00  0.6150539E+04  0.9179819E-01  0.1632131E+05  0.1857755E+01  0.1025616E+06  0.2815790E+01  0.9605421E+07 -0.8934264E+00  0.2381872E+06  0.6376986E+00
  0.2397959E+01  0.5578136E+06 -0.1213761E+01  0.6025049E+04 -0.1445282E+00  0.2294547E+05  0.1386272E+01  0.1469649E+06  0.2809086E+01  0.7157756E+07 -0.1130516E+01  0.1280305E+06  0.1940981E+01
  0.2458163E+01  0.6533367E+06 -0.1549708E+01  0.1113962E+05 -0.2793626E+01  0.1239838E+06  0.1035492E+01  0.1745139E+06 -0.1990922E+00  0.6180918E+07 -0.1363555E+01  0.2073757E+07 -0.3672811E+00
  0.2518367E+01  0.7060401E+06  0.4179525E+00  0.6401731E+04  0.2581320E-02  0.2208963E+04 -0.2646871E+01  0.6132333E+05  0.3096049E+01  0.8468756E+07  0.4242779E+00  0.1523602E+06 -0.7069109E+00
  0.2578571E+01  0.3342315E+06  0.4494976E+00  0.7816007E+04  0.1684665E+01  0.7400228E+04 -0.1798588E+01  0.1262842E+06 -0.1453393E+01  0.4084401E+07  0.4205917E+00  0.1717465E+06  0.4371103E+00
  0.2638775E+01  0.4852801E+06  0.2732146E+01  0.8959685E+04  0.1105562E+01  0.6964196E+04 -0.1659230E+01  0.1194519E+06 -0.1950404E+01  0.6320386E+07  0.2782194E+01  0.2392743E+06  0.3104219E+00
  0.2698980E+01  0.4882128E+06  0.2166427E+01  0.1664594E+05  0.1796367E+01  0.8835660E+04 -0.1647300E+00  0.2223554E+06 -0.1076964E+01  0.6164607E+07  0.2222932E+01  0.1621862E+06  0.2818167E+01
  0.2759184E+01  0.2963612E+06 -0.2861690E+01  0.3567645E+05 -0.2366146E+01  0.8957609E+04 -0.1538730E+00  0.5297548E+06  0.6592734E+00  0.4232744E+07 -0.2662580E+01  0.3549721E+06  0.2316323E+01
  0.2819388E+01  0.5348862E+06 -0.2589922E+01  0.2107166E+05 -0.1837582E+01  0.2924367E+04 -0.5571637E+00  0.3832316E+06  0.1345936E+01  0.7035250E+07 -0.2503379E+01  0.4112100E+06  0.1263084E+01
  0.2879592E+01  0.2855544E+06 -0.2365403E+01  0.3379848E+05 -0.1089838E+01  0.9623891E+04 -0.2246979E+01  0.4804924E+06  0.2315793E+01  0.3588577E+07 -0.2360525E+01  0.6097843E+06 -0.2227583E+00
  0.2939796E+01  0.2399379E+06 -0.7514281E+00  0.1878606E+05  0.1694069E+01  0.2185892E+05  0.8168623E+00  0.2635642E+06 -0.1756533E+01  0.2954875E+07 -0.7176968E+00  0.5293098E+06 -0.7521433E+00
  0.3000000E+01  0.1359660E+06 -0.9111131E+00  0.1319974E+05  0.1525538E+01  0.1128559E+05  0.1866308E+01  0.2308449E+06 -0.1767443E+01  0.2424578E+07 -0.7444640E+00  0.3200442E+06  0.2158599E+01
