VARIABLES="w (rad/s)"
"abs(F   1   1)" "angle(F   1   1)"
"abs(F   1   2)" "angle(F   1   2)"
"abs(F   1   3)" "angle(F   1   3)"
"abs(F   1   4)" "angle(F   1   4)"
"abs(F   1   5)" "angle(F   1   5)"
"abs(F   1   6)" "angle(F   1   6)"
Zone t="FKforce - beta =   0.000",I=    50,F=POINT
  0.5000000E-01  0.2289010E+06 -0.1570787E+01  0.1431903E+01 -0.1913989E-01  0.4329151E+07  0.7048674E-05  0.1554833E+03  0.1520428E+01  0.5687522E+07 -0.1584961E+01  0.2422241E+02  0.2140370E+01
  0.1102041E+00  0.5140996E+06 -0.1570739E+01  0.5057746E+00 -0.2169777E+01  0.4132814E+07  0.8528365E-04  0.3295919E+03  0.1613737E+01  0.1261008E+08 -0.1603148E+01  0.2183474E+03  0.2824142E+01
  0.1704082E+00  0.8232548E+06 -0.1570566E+01  0.2070534E+01 -0.1775985E+01  0.3791041E+07  0.3955383E-03  0.4755477E+03  0.1529270E+01  0.1972649E+08 -0.1624190E+01  0.4608668E+03  0.2776552E+01
  0.2306122E+00  0.1174765E+07 -0.1570068E+01  0.5569590E+01 -0.1859176E+01  0.3309105E+07  0.1391348E-02  0.5635492E+03  0.1537630E+01  0.2718211E+08 -0.1650570E+01  0.8436638E+03  0.2663649E+01
  0.2908163E+00  0.1585361E+07 -0.1568652E+01  0.1196082E+02 -0.1798764E+01  0.2699617E+07  0.4553160E-02  0.5413613E+03  0.1544067E+01  0.3497942E+08 -0.1685758E+01  0.1231168E+04  0.2468146E+01
  0.3510204E+00  0.2042599E+07 -0.1564807E+01  0.2067431E+02 -0.1877116E+01  0.1989051E+07  0.1497253E-01  0.3406858E+03  0.1690256E+01  0.4241175E+08 -0.1733160E+01  0.1711256E+04  0.2259923E+01
  0.4112245E+00  0.2475714E+07 -0.1555202E+01  0.3127968E+02 -0.2036454E+01  0.1221758E+07  0.5227486E-01  0.3000341E+03 -0.2635114E+01  0.4765398E+08 -0.1794183E+01  0.2258958E+04  0.1953142E+01
  0.4714286E+00  0.2783591E+07 -0.1533400E+01  0.4075005E+02 -0.2221391E+01  0.4659540E+06  0.2571227E+00  0.1185096E+04 -0.2188178E+01  0.4860266E+08 -0.1869428E+01  0.2915807E+04  0.1614924E+01
  0.5316327E+00  0.2882806E+07 -0.1486760E+01  0.4781467E+02 -0.2530318E+01  0.3160546E+06  0.2494330E+01  0.2515630E+04 -0.2171031E+01  0.4389322E+08 -0.1962358E+01  0.3794604E+04  0.1329657E+01
  0.5918368E+00  0.2738421E+07 -0.1389418E+01  0.5064112E+02 -0.3005354E+01  0.8605609E+06  0.2826840E+01  0.4123745E+04 -0.2202035E+01  0.3322633E+08 -0.2086242E+01  0.4719826E+04  0.1100599E+01
  0.6520408E+00  0.2412929E+07 -0.1189688E+01  0.6375497E+02  0.2609191E+01  0.1231585E+07  0.2878111E+01  0.5763037E+04 -0.2245286E+01  0.1761242E+08 -0.2312997E+01  0.5505166E+04  0.9474322E+00
  0.7122449E+00  0.2147487E+07 -0.8219107E+00  0.1023456E+03  0.2068588E+01  0.1371190E+07  0.2905315E+01  0.7043324E+04 -0.2279807E+01  0.5272646E+07  0.2159873E+01  0.5931742E+04  0.8819009E+00
  0.7724490E+00  0.2290738E+07 -0.3657860E+00  0.1607403E+03  0.1783289E+01  0.1280916E+07  0.2955190E+01  0.7519564E+04 -0.2289082E+01  0.2176614E+08  0.1119523E+01  0.5904857E+04  0.9192731E+00
  0.8326531E+00  0.2802313E+07 -0.5084929E-01  0.2278427E+03  0.1657229E+01  0.1018546E+07  0.3084921E+01  0.6892778E+04 -0.2228761E+01  0.3700319E+08  0.9128442E+00  0.5638607E+04  0.1056476E+01
  0.8928571E+00  0.3247589E+07  0.9706736E-01  0.2941226E+03  0.1648958E+01  0.7183848E+06 -0.2858903E+01  0.5377092E+04 -0.1983834E+01  0.4530028E+08  0.7709492E+00  0.5282363E+04  0.1236878E+01
  0.9530612E+00  0.3242791E+07  0.1539016E+00  0.3625912E+03  0.1737072E+01  0.6091472E+06 -0.2217784E+01  0.4530039E+04 -0.1351029E+01  0.4421884E+08  0.6555037E+00  0.4518298E+04  0.1375090E+01
  0.1013265E+01  0.2597479E+07  0.1856442E+00  0.4471019E+03  0.1877157E+01  0.7367151E+06 -0.1730632E+01  0.6134126E+04 -0.7687873E+00  0.3349026E+08  0.5830913E+00  0.2448787E+04  0.1430729E+01
  0.1073469E+01  0.1379577E+07  0.3247874E+00  0.5485248E+03  0.2001551E+01  0.8573670E+06 -0.1532092E+01  0.8180128E+04 -0.5751764E+00  0.1594710E+08  0.7111844E+00  0.1364802E+04 -0.1802781E+01
  0.1133673E+01  0.6013786E+06  0.1982263E+01  0.6344119E+03  0.2077348E+01  0.8460683E+06 -0.1451615E+01  0.8518978E+04 -0.5615723E+00  0.1028645E+08  0.2456372E+01  0.6268498E+04 -0.1874932E+01
  0.1193877E+01  0.1797958E+07  0.2664662E+01  0.6465757E+03  0.2124659E+01  0.7047105E+06 -0.1391154E+01  0.6362824E+04 -0.6484683E+00  0.2624960E+08  0.2855113E+01  0.1042745E+05 -0.2030542E+01
  0.1254082E+01  0.2501237E+07  0.2717043E+01  0.5397493E+03  0.2213506E+01  0.4980585E+06 -0.1273582E+01  0.2343160E+04 -0.9834928E+00  0.3467380E+08  0.2851702E+01  0.1162445E+05 -0.2270570E+01
  0.1314286E+01  0.2235040E+07  0.2784548E+01  0.3470903E+03  0.2589044E+01  0.3145414E+06 -0.9912809E+00  0.2294142E+04  0.2831122E+01  0.3107363E+08  0.2866667E+01  0.8974567E+04 -0.2727135E+01
  0.1374490E+01  0.1312147E+07 -0.3011280E+01  0.3387797E+03 -0.2689465E+01  0.2206757E+06 -0.5170199E+00  0.4329057E+04  0.2468204E+01  0.1881922E+08 -0.3087517E+01  0.6458500E+04  0.2428365E+01
  0.1434694E+01  0.1688748E+07 -0.1851327E+01  0.5666467E+03 -0.2249014E+01  0.1868750E+06 -0.1551828E+00  0.2879743E+04  0.2146371E+01  0.1838021E+08 -0.1973040E+01  0.9758546E+04  0.1423298E+01
  0.1494898E+01  0.2881356E+07 -0.1587518E+01  0.6866616E+03 -0.2136221E+01  0.1448442E+06 -0.2099631E-01  0.2047334E+04 -0.2534661E+00  0.3153841E+08 -0.1602100E+01  0.1001420E+05  0.9324117E+00
  0.1555102E+01  0.3165634E+07 -0.1570315E+01  0.5791099E+03 -0.1943587E+01  0.8717807E+05 -0.6421181E-02  0.6182796E+04 -0.7276824E+00  0.3559940E+08 -0.1569185E+01  0.2974137E+04 -0.1955090E+00
  0.1615306E+01  0.2258402E+07 -0.1497108E+01  0.4600368E+03 -0.1157119E+01  0.3556800E+05 -0.1924752E-01  0.6354433E+04 -0.8472931E+00  0.2598969E+08 -0.1505559E+01  0.1364403E+05 -0.2262938E+01
  0.1675510E+01  0.1109548E+07 -0.7614018E+00  0.8041693E+03 -0.4641865E+00  0.5622915E+04  0.2260443E+00  0.7585418E+03 -0.5631451E-01  0.1257883E+08 -0.8178684E+00  0.2579754E+05 -0.2536444E+01
  0.1735714E+01  0.1620449E+07  0.1828843E+00  0.1193985E+04 -0.3005964E+00  0.4033880E+04  0.2605207E+01  0.8946618E+04  0.2017016E+01  0.1795381E+08  0.1787904E+00  0.2458725E+05 -0.2650582E+01
  0.1795918E+01  0.1783076E+07  0.2614646E+00  0.1246816E+04 -0.1525117E+00  0.1481252E+04  0.3141432E+01  0.1522998E+05  0.2131253E+01  0.2029249E+08  0.2680162E+00  0.8521664E+04 -0.1954813E+01
  0.1856122E+01  0.8083250E+06  0.2183067E+00  0.1081576E+04  0.3623442E+00  0.3812024E+04 -0.1055338E+01  0.1443712E+05  0.2598109E+01  0.9429182E+07  0.2251184E+00  0.2727003E+05 -0.4190204E+00
  0.1916327E+01  0.5752082E+06  0.2938766E+01  0.1490116E+04  0.1085111E+01  0.6404056E+04 -0.1165307E+01  0.1945063E+05 -0.2666672E+01  0.6612080E+07  0.2941914E+01  0.4425047E+05 -0.4042060E+00
  0.1976531E+01  0.1260330E+07  0.2924017E+01  0.2158821E+04  0.1388865E+01  0.6648690E+04 -0.1444670E+01  0.3414328E+05 -0.2182626E+01  0.1486420E+08  0.2929720E+01  0.3125854E+05 -0.3504152E+00
  0.2036735E+01  0.8874052E+06  0.3081799E+01  0.2209940E+04  0.1641026E+01  0.4916067E+04 -0.1639871E+01  0.3976048E+05 -0.1856078E+01  0.1069788E+08  0.3081355E+01  0.1869086E+05  0.1505587E+01
  0.2096939E+01  0.7057754E+06 -0.1934982E+01  0.1921591E+04  0.2284607E+01  0.2625570E+04 -0.8150014E+00  0.3651011E+05 -0.1203789E+01  0.8409354E+07 -0.1952733E+01  0.5384547E+05  0.1890701E+01
  0.2157143E+01  0.1148351E+07 -0.1575986E+01  0.2614943E+04  0.3001300E+01  0.5944453E+04 -0.5178938E-01  0.4792327E+05 -0.4105818E+00  0.1385821E+08 -0.1577042E+01  0.4875110E+05  0.1882968E+01
  0.2217347E+01  0.8834625E+06 -0.1553444E+01  0.3071453E+04 -0.2942963E+01  0.6617333E+04 -0.3598949E-01  0.5802486E+05  0.3566025E-01  0.1094038E+08 -0.1555101E+01  0.1603618E+05 -0.2663519E+01
  0.2277551E+01  0.3540009E+06 -0.1066825E+01  0.2316211E+04 -0.2379515E+01  0.2728912E+04  0.7633115E+00  0.4791329E+05  0.6459874E+00  0.4499465E+07 -0.1115138E+01  0.6795587E+05 -0.2029989E+01
  0.2337755E+01  0.2800865E+06 -0.2830588E+00  0.2730244E+04 -0.1314137E+01  0.6343608E+04  0.1921558E+01  0.5435384E+05  0.1659729E+01  0.3415314E+07 -0.3079308E+00  0.6162308E+05 -0.2079617E+01
  0.2397959E+01  0.1641677E+06 -0.8788162E+00  0.3521674E+04 -0.8324198E+00  0.5414801E+04  0.1890042E+01  0.6843724E+05  0.2233608E+01  0.2129564E+07 -0.7996662E+00  0.2415995E+05 -0.7253525E-01
  0.2458163E+01  0.1521997E+06 -0.1608312E+01  0.2679333E+04 -0.8456932E-01  0.2434505E+04 -0.1941389E+01  0.5731586E+05  0.2993691E+01  0.1949693E+07 -0.1472607E+01  0.8766628E+05  0.2475601E+00
  0.2518367E+01  0.2039606E+06 -0.1076359E+01  0.3977140E+04  0.9915768E+00  0.7092301E+04 -0.1839173E+01  0.7724923E+05 -0.2272490E+01  0.2595929E+07 -0.1073690E+01  0.5624289E+05  0.1352593E+00
  0.2578571E+01  0.1567047E+06 -0.8343995E+00  0.4869701E+04  0.1434590E+01  0.3818904E+04 -0.1280992E+01  0.9296367E+05 -0.1741067E+01  0.1758088E+07 -0.8273991E+00  0.5027842E+05  0.2645684E+01
  0.2638775E+01  0.1848803E+06  0.1514825E+01  0.4100175E+04  0.2290848E+01  0.7375165E+04 -0.3930368E-01  0.8299620E+05 -0.9022342E+00  0.2510514E+07  0.1532798E+01  0.9302562E+05  0.2492272E+01
  0.2698980E+01  0.2977260E+06  0.1588206E+01  0.5939663E+04  0.3101820E+01  0.7549114E+04 -0.2000584E-01  0.1112665E+06 -0.8731291E-01  0.3716477E+07  0.1590399E+01  0.7012045E+04  0.2589736E+01
  0.2759184E+01  0.1776158E+06 -0.3020720E+01  0.5579596E+04 -0.2716625E+01  0.2855533E+04  0.5391126E+00  0.1069110E+06  0.4562318E+00  0.2384665E+07 -0.2970892E+01  0.9470476E+05 -0.1280438E+01
  0.2819388E+01  0.4296480E+06 -0.2660249E+01  0.4793512E+04 -0.1672272E+01  0.2836240E+04  0.1254093E+01  0.9691647E+05  0.1444288E+01  0.5546317E+07 -0.2661738E+01  0.5757400E+05 -0.1520050E+01
  0.2879592E+01  0.1233302E+06 -0.2127480E+01  0.5923470E+04 -0.1019960E+01  0.2082666E+04  0.2718126E+00  0.1143276E+06  0.2139614E+01  0.1551195E+07 -0.2098470E+01  0.7239621E+05  0.1095321E+01
  0.2939796E+01  0.3701468E+06 -0.3857858E+00  0.3858888E+04 -0.2050919E+00  0.2208507E+04 -0.9394268E-01  0.8541711E+05  0.2972388E+01  0.4819488E+07 -0.3868158E+00  0.9661641E+05  0.8568228E+00
  0.3000000E+01  0.2024908E+06  0.1770156E-02  0.5081973E+04  0.9742979E+00  0.1870792E+04  0.3048913E+00  0.1041419E+06 -0.2239848E+01  0.2649415E+07 -0.1186066E-01  0.2943800E+05  0.3137486E+01
