VARIABLES="w (rad/s)"  
"A   1   1" "B   1   1"
"A   1   2" "B   1   2"
"A   1   3" "B   1   3"
"A   1   4" "B   1   4"
"A   1   5" "B   1   5"
"A   1   6" "B   1   6"
Zone t="Motion of body    1 in DoF   1",I=    50,F=POINT
  0.5000000E-01  0.1288300E+08  0.4694892E+02 -0.1814896E+04 -0.3130342E-01  0.3043769E+04  0.2934955E+01  0.4357445E+05  0.7666356E+00  0.6393193E+08  0.8035417E+03  0.1062898E+06 -0.2970352E-01
  0.1102041E+00  0.1293432E+08  0.5981337E+03 -0.1837871E+04 -0.4235314E+00  0.3005103E+04  0.6425931E+01  0.4352136E+05  0.7240204E+01  0.6422946E+08  0.9928812E+04  0.1066975E+06  0.1670765E+01
  0.1704082E+00  0.1303129E+08  0.3030275E+04 -0.1881052E+04 -0.2107993E+01  0.2973760E+04  0.9675133E+01  0.4351287E+05  0.3388321E+02  0.6475722E+08  0.4750310E+05  0.1073315E+06  0.1017821E+02
  0.2306122E+00  0.1319024E+08  0.1188663E+05 -0.1951014E+04 -0.8109176E+01  0.2940929E+04  0.1190779E+02  0.4336373E+05  0.1209197E+03  0.6554613E+08  0.1701647E+06  0.1085787E+06  0.3516285E+02
  0.2908163E+00  0.1342389E+08  0.4195596E+05 -0.2059920E+04 -0.2827508E+02  0.2909072E+04  0.1174490E+02  0.4325987E+05  0.3835097E+03  0.6640867E+08  0.5237838E+06  0.1100527E+06  0.1239531E+03
  0.3510204E+00  0.1371316E+08  0.1287631E+06 -0.2183343E+04 -0.8535489E+02  0.2888592E+04  0.1205805E+02  0.4224745E+05  0.1010316E+04  0.6654553E+08  0.1307011E+07  0.1122086E+06  0.3666971E+03
  0.4112245E+00  0.1396074E+08  0.3180772E+06 -0.2256814E+04 -0.2072696E+03  0.2855674E+04  0.3732923E+02  0.3982063E+05  0.1982726E+04  0.6462557E+08  0.2301602E+07  0.1144332E+06  0.8651296E+03
  0.4714286E+00  0.1402574E+08  0.6220599E+06 -0.2172704E+04 -0.3937953E+03  0.2679728E+04  0.9391304E+02  0.3431107E+05  0.2600304E+04  0.6040627E+08  0.2212743E+07  0.1171052E+06  0.1581039E+04
  0.5316327E+00  0.1382086E+08  0.9788536E+06 -0.1900246E+04 -0.5967159E+03  0.2205347E+04  0.5439122E+02  0.2622136E+05  0.1293134E+04  0.5677490E+08 -0.1161515E+07  0.1204732E+06  0.2313117E+04
  0.5918368E+00  0.1341468E+08  0.1241628E+07 -0.1475443E+04 -0.7288415E+03  0.1743762E+04 -0.3535851E+03  0.1833363E+05 -0.4136931E+04  0.6051690E+08 -0.9155462E+07  0.1259505E+06  0.3035272E+04
  0.6520408E+00  0.1314491E+08  0.1240561E+07 -0.1023803E+04 -0.6869333E+03  0.2072605E+04 -0.1158841E+04  0.1538509E+05 -0.1649114E+05  0.8016630E+08 -0.1820192E+08  0.1360828E+06  0.5142126E+04
  0.7122449E+00  0.1364153E+08  0.1112459E+07 -0.8089951E+03 -0.3677083E+03  0.3539461E+04 -0.1700482E+04  0.2988720E+05 -0.3488668E+05  0.1157264E+09 -0.1373032E+08  0.1522789E+06  0.1504561E+05
  0.7724490E+00  0.1474554E+08  0.1813056E+07 -0.1268567E+04 -0.4290619E+02  0.5044961E+04 -0.1048183E+04  0.6450848E+05 -0.3955169E+05  0.1338114E+09  0.2026726E+08  0.1569839E+06  0.4231289E+05
  0.8326531E+00  0.1457691E+08  0.3442388E+07 -0.1764354E+04 -0.2634286E+03  0.4839357E+04  0.2496770E+03  0.8117438E+05 -0.2330204E+05  0.1041270E+09  0.5281145E+08  0.1298971E+06  0.6908005E+05
  0.8928571E+00  0.1335401E+08  0.4481518E+07 -0.1882145E+04 -0.5953439E+03  0.3714982E+04  0.7032448E+03  0.8024634E+05 -0.1121484E+05  0.7149668E+08  0.5406152E+08  0.9865997E+05  0.7263551E+05
  0.9530612E+00  0.1245280E+08  0.4838401E+07 -0.1961573E+04 -0.9879736E+03  0.3038848E+04  0.2951953E+03  0.7931516E+05 -0.2789072E+04  0.6257090E+08  0.4283549E+08  0.8422997E+05  0.6414711E+05
  0.1013265E+01  0.1218680E+08  0.5267500E+07 -0.1655323E+04 -0.1401351E+04  0.2979577E+04 -0.1919279E+03  0.7529694E+05  0.5707491E+04  0.7237163E+08  0.3960208E+08  0.8737238E+05  0.5814695E+05
  0.1073469E+01  0.1183214E+08  0.6813157E+07 -0.9037812E+03 -0.2647789E+04  0.3275534E+04 -0.6230661E+03  0.6751600E+05  0.2542656E+05  0.8350530E+08  0.6465010E+08  0.9528488E+05  0.6711059E+05
  0.1133673E+01  0.9181729E+07  0.8194701E+07  0.1365893E+04 -0.2019677E+04  0.3897682E+04 -0.4059294E+03  0.3568914E+05  0.2613528E+05  0.5013086E+08  0.1018296E+09  0.8246591E+05  0.9171294E+05
  0.1193877E+01  0.7250398E+07  0.6044566E+07  0.9326689E+03  0.1618817E+03  0.3814139E+04  0.2688797E+03  0.3666500E+05  0.2524748E+03  0.1297223E+08  0.7911497E+08  0.5363325E+05  0.9376811E+05
  0.1254082E+01  0.7465301E+07  0.4165038E+07  0.1878125E+03  0.5649681E+03  0.3443986E+04  0.5075351E+03  0.4375107E+05 -0.3699311E+04  0.1121066E+08  0.4879273E+08  0.3712602E+05  0.6894925E+05
  0.1314286E+01  0.8063348E+07  0.2890250E+07 -0.3864966E+03  0.7084442E+03  0.3159770E+04  0.3341162E+03  0.4727466E+05 -0.2539297E+04  0.1976409E+08  0.2944510E+08  0.4181299E+05  0.4172849E+05
  0.1374490E+01  0.9617668E+07  0.2694102E+07 -0.1097772E+04  0.1398342E+03  0.3063845E+04  0.7286612E+02  0.5126770E+05  0.4264073E+03  0.3927373E+08  0.2529107E+08  0.5856636E+05  0.2948828E+05
  0.1434694E+01  0.9643411E+07  0.5590708E+07  0.7299683E+02 -0.1636195E+04  0.3193459E+04 -0.1904127E+03  0.4413323E+05  0.1686578E+05  0.4220539E+08  0.5849704E+08  0.7974261E+05  0.5280160E+05
  0.1494898E+01  0.7900330E+07  0.5181522E+07  0.3966785E+03  0.4790504E+03  0.3302436E+04 -0.1029695E+03  0.3815864E+05  0.4607512E+04  0.2235666E+08  0.5702260E+08  0.5044720E+05  0.8202141E+05
  0.1555102E+01  0.7839088E+07  0.3938834E+07 -0.6528223E+02  0.8920528E+03  0.3312189E+04 -0.1230170E+03  0.3806860E+05  0.3061030E+03  0.2112983E+08  0.4327482E+08  0.4285680E+05  0.5022781E+05
  0.1615306E+01  0.8041428E+07  0.3732006E+07 -0.4121934E+03  0.1862782E+03  0.3410166E+04 -0.1419534E+03  0.4102439E+05  0.4347972E+04  0.2345336E+08  0.4180314E+08  0.5109022E+05  0.4156077E+05
  0.1675510E+01  0.7529512E+07  0.3649720E+07  0.1321851E+04  0.1312316E+04  0.3477499E+04  0.2361264E+03  0.2051829E+05 -0.7441834E+04  0.1691720E+08  0.4223862E+08  0.5703089E+05  0.6218540E+05
  0.1735714E+01  0.7726552E+07  0.1990640E+07 -0.7387771E+03  0.3022461E+04  0.3200326E+04  0.2313095E+03  0.4125873E+05 -0.2769997E+05  0.1843611E+08  0.2248146E+08  0.3591716E+05  0.5359706E+05
  0.1795918E+01  0.8276702E+07  0.1699870E+07 -0.1513014E+04  0.2406750E+04  0.3236945E+04 -0.1019801E+03  0.4940953E+05 -0.2801419E+05  0.2488823E+08  0.1900230E+08  0.4095238E+05  0.3238630E+05
  0.1856122E+01  0.8788574E+07  0.2138229E+07 -0.2239328E+04 -0.3041665E+04  0.3426400E+04 -0.3246496E+02  0.6260437E+05  0.3788404E+05  0.3081937E+08  0.2458638E+08  0.4678344E+05  0.3405888E+05
  0.1916327E+01  0.8290908E+07  0.3147648E+07  0.2190011E+04  0.1037508E+05  0.3330951E+04  0.2980130E+03  0.3739514E+04 -0.1153929E+06  0.2477694E+08  0.3692666E+08  0.3182058E+05  0.1437447E+04
  0.1976531E+01  0.8117226E+07  0.2010061E+07 -0.1645940E+04  0.1988937E+04  0.3394571E+04  0.1434926E+03  0.5774938E+05 -0.2700781E+05  0.2217904E+08  0.2375885E+08  0.2083525E+05  0.2707915E+05
  0.2036735E+01  0.8322084E+07  0.1693970E+07 -0.5711216E+03 -0.5146240E+03  0.3298193E+04  0.3291103E+03  0.3876594E+05  0.1101276E+05  0.2454893E+08  0.2025924E+08  0.3813753E+05  0.2960258E+05
  0.2096939E+01  0.8344832E+07  0.1581322E+07  0.5876628E+03  0.4426070E+04  0.3234006E+04  0.2811516E+03  0.2096052E+05 -0.5991940E+05  0.2454641E+08  0.1920589E+08  0.2954047E+05  0.2694238E+05
  0.2157143E+01  0.8516748E+07  0.1108930E+07 -0.1802660E+04  0.3407500E+04  0.3233463E+04  0.2619530E+03  0.5243446E+05 -0.4949605E+05  0.2645875E+08  0.1340243E+08  0.3713792E+05 -0.2129254E+05
  0.2217347E+01  0.8756056E+07  0.1160107E+07 -0.2619877E+04 -0.1082444E+04  0.3349665E+04  0.1370838E+03  0.6361921E+05  0.4502844E+04  0.2928998E+08  0.1428210E+08  0.3812552E+05  0.9094032E+04
  0.2277551E+01  0.8664435E+07  0.1869478E+07  0.2413882E+04  0.4400888E+04  0.3352547E+04  0.5679258E+03 -0.2781215E+04 -0.8449641E+05  0.2790915E+08  0.2349557E+08  0.1561469E+05 -0.1650172E+05
  0.2337755E+01  0.8534673E+07  0.9571128E+06 -0.9275142E+03  0.2822094E+03  0.3176435E+04  0.5549200E+03  0.4685838E+05 -0.2366242E+05  0.2609080E+08  0.1207672E+08  0.2548478E+05 -0.6315025E+05
  0.2397959E+01  0.8680402E+07  0.7522579E+06  0.5947041E+03  0.3955813E+04  0.3178978E+04  0.7805540E+03  0.2653955E+05 -0.9357661E+05  0.2776243E+08  0.9822100E+07 -0.9959062E+04 -0.1616273E+06
  0.2458163E+01  0.9079115E+07 -0.3448886E+05  0.2023705E+04 -0.6645554E+04  0.4227279E+04 -0.3024081E+04  0.4050301E+05  0.7029448E+05  0.3198516E+08  0.5678876E+05  0.3978644E+05 -0.9754686E+05
  0.2518367E+01  0.8960395E+07  0.9053231E+06  0.6626182E+03  0.1190491E+04  0.3074089E+04 -0.1343857E+02  0.2825960E+05  0.6914880E+04  0.3101710E+08  0.1115879E+08  0.1388036E+06  0.6136386E+05
  0.2578571E+01  0.9057139E+07  0.1180046E+07 -0.5365850E+04  0.9320946E+04  0.3296664E+04  0.2714429E+03  0.1022821E+06 -0.9638316E+05  0.3215994E+08  0.1523831E+08  0.1107527E+06  0.9152494E+05
  0.2638775E+01  0.8827326E+07  0.7793436E+06 -0.2937204E+04 -0.9641468E+04  0.3138956E+04  0.6214718E+03  0.7696565E+05  0.1289173E+06  0.2895914E+08  0.1010103E+08  0.6395002E+05  0.4767337E+05
  0.2698980E+01  0.8981261E+07  0.5766490E+06  0.2374048E+03 -0.7595095E+04  0.3069189E+04  0.9080767E+03  0.3204476E+05  0.1046622E+06  0.3083041E+08  0.7691458E+07  0.7875134E+05  0.3995991E+05
  0.2759184E+01  0.9014024E+07  0.6170919E+06 -0.3922529E+04  0.2371570E+05  0.2549743E+04  0.1277583E+04  0.7102179E+05 -0.3217542E+06  0.3096598E+08  0.8351308E+07  0.6130800E+05  0.1265547E+06
  0.2819388E+01  0.9100492E+07  0.5962379E+06 -0.3636537E+04  0.4724789E+03  0.2895661E+04 -0.8577656E+03  0.8116953E+05  0.1591331E+05  0.3210048E+08  0.7331292E+07  0.7003980E+05  0.1221452E+05
  0.2879592E+01  0.9091454E+07  0.9422219E+06  0.6026293E+04  0.7464970E+04  0.3204328E+04 -0.8738763E+03 -0.3442067E+05 -0.5499328E+05  0.3206856E+08  0.1182227E+08  0.7921377E+05  0.1551376E+05
  0.2939796E+01  0.9050399E+07  0.4927620E+06 -0.3915375E+04  0.1268175E+04  0.3259315E+04 -0.1516293E+03  0.7531207E+05 -0.2605241E+05  0.3138859E+08  0.6486852E+07  0.4388273E+05  0.2668650E+05
  0.3000000E+01  0.9127474E+07  0.5082830E+06 -0.3069160E+03  0.1290451E+04  0.3253058E+04 -0.5157944E+02  0.3295132E+05 -0.5451723E+04  0.3239660E+08  0.6523946E+07  0.5796105E+05 -0.1807502E+05
Zone t="Motion of body    1 in DoF   2",I=    50,F=POINT
  0.5000000E-01  0.8416772E+03 -0.3225380E-02  0.1289670E+08  0.4702254E+02  0.3667869E+04 -0.9473590E+01 -0.6395431E+08 -0.8044857E+03  0.4557156E+05 -0.3931895E-01 -0.2427581E+06 -0.3513561E+00
  0.1102041E+00  0.8361567E+03 -0.5018442E-01  0.1294813E+08  0.5990983E+03  0.3801429E+04 -0.2121292E+02 -0.6425194E+08 -0.9941307E+04  0.4552481E+05 -0.4602512E+00 -0.2436750E+06 -0.3627910E+01
  0.1704082E+00  0.8393438E+03 -0.2946052E+00  0.1304529E+08  0.3035115E+04  0.3932289E+04 -0.3291574E+02 -0.6477975E+08 -0.4756348E+05  0.4575176E+05 -0.2059391E+01 -0.2454712E+06 -0.1906260E+02
  0.2306122E+00  0.8381538E+03 -0.1235242E+01  0.1320456E+08  0.1190600E+05  0.4112752E+04 -0.3966341E+02 -0.6556856E+08 -0.1703806E+06  0.4585783E+05 -0.9335517E+01 -0.2478395E+06 -0.7435793E+02
  0.2908163E+00  0.8423342E+03 -0.4808002E+01  0.1343867E+08  0.4202617E+05  0.4369618E+04 -0.2172563E+02 -0.6643091E+08 -0.5244544E+06  0.4637768E+05 -0.3413368E+02 -0.2512861E+06 -0.2710354E+03
  0.3510204E+00  0.8357002E+03 -0.1634060E+02  0.1372856E+08  0.1289886E+06  0.4674755E+04  0.7087893E+02 -0.6656536E+08 -0.1308685E+07  0.4669724E+05 -0.9462212E+02 -0.2562724E+06 -0.8686426E+03
  0.4112245E+00  0.8596289E+03 -0.4354259E+02  0.1397675E+08  0.3186728E+06  0.4871075E+04  0.2982068E+03 -0.6463865E+08 -0.2304376E+07  0.4804293E+05 -0.1994005E+03 -0.2628553E+06 -0.2309986E+04
  0.4714286E+00  0.9516782E+03 -0.8389294E+02  0.1404208E+08  0.6233332E+06  0.4761235E+04  0.6736240E+03 -0.6040703E+08 -0.2214411E+07  0.5009364E+05 -0.1669087E+03 -0.2702203E+06 -0.5106389E+04
  0.5316327E+00  0.1107807E+04 -0.1248237E+03  0.1383693E+08  0.9811144E+06  0.4207813E+04  0.1077371E+04 -0.5676269E+08  0.1167750E+07  0.5227592E+05  0.2230147E+03 -0.2778414E+06 -0.9926495E+04
  0.5918368E+00  0.1346039E+04 -0.1324352E+03  0.1342961E+08  0.1244868E+07  0.3409276E+04  0.1297732E+04 -0.6050314E+08  0.9181599E+07  0.5554959E+05  0.1542091E+04 -0.2864446E+06 -0.1777231E+05
  0.6520408E+00  0.1659342E+04 -0.5502255E+02  0.1315833E+08  0.1244139E+07  0.2751555E+04  0.1275296E+04 -0.8018398E+08  0.1825451E+08  0.5911944E+05  0.4814026E+04 -0.2945442E+06 -0.3015271E+05
  0.7122449E+00  0.1994582E+04  0.2403678E+03  0.1365487E+08  0.1115744E+07  0.2317439E+04  0.1079184E+04 -0.1158059E+09  0.1378475E+08  0.6015433E+05  0.1213627E+05 -0.3024846E+06 -0.5040130E+05
  0.7724490E+00  0.1945219E+04  0.8617908E+03  0.1475986E+08  0.1817291E+07  0.2232839E+04  0.7265110E+03 -0.1339114E+09 -0.2024706E+08  0.5097871E+05  0.2131845E+05 -0.3007387E+06 -0.8671505E+05
  0.8326531E+00  0.1297670E+04  0.1258189E+04  0.1459074E+08  0.3448230E+07  0.2507482E+04  0.5564759E+03 -0.1042231E+09 -0.5280120E+08  0.3792370E+05  0.2072263E+05 -0.2637790E+06 -0.1297367E+06
  0.8928571E+00  0.8980864E+03  0.1237147E+04  0.1336704E+08  0.4488957E+07  0.2585327E+04  0.6252329E+03 -0.7161016E+08 -0.5407162E+08  0.3539023E+05  0.1505056E+05 -0.2069148E+06 -0.1490755E+06
  0.9530612E+00  0.8765234E+03  0.1326172E+04  0.1246433E+08  0.4847694E+07  0.2632364E+04  0.4734091E+03 -0.6268518E+08 -0.4288893E+08  0.3895033E+05  0.1442235E+05 -0.1588775E+06 -0.1424529E+06
  0.1013265E+01  0.5473647E+03  0.1533522E+04  0.1219582E+08  0.5278896E+07  0.2837925E+04  0.8041526E+03 -0.7245749E+08 -0.3971090E+08  0.3735555E+05  0.1839640E+05 -0.1266508E+06 -0.1172128E+06
  0.1073469E+01 -0.2521431E+03  0.2252886E+04  0.1183610E+08  0.6824901E+07  0.2396923E+04  0.1046263E+04 -0.8350654E+08 -0.6479719E+08  0.2815064E+05  0.2953038E+05 -0.1175251E+06 -0.7974134E+05
  0.1133673E+01 -0.1671067E+04  0.1263745E+04  0.9183163E+07  0.8199903E+07  0.2105393E+04  0.6042617E+03 -0.5005937E+08 -0.1018814E+09  0.7824930E+04  0.1746403E+05 -0.1304388E+06 -0.4897462E+05
  0.1193877E+01 -0.1075814E+04 -0.1660623E+03  0.7255182E+07  0.6047180E+07  0.2346848E+04  0.3503713E+03 -0.1295296E+08 -0.7910205E+08  0.1650868E+05 -0.2517883E+04 -0.1513257E+06 -0.3951578E+05
  0.1254082E+01 -0.4837720E+03 -0.3490240E+03  0.7471000E+07  0.4167754E+07  0.2410858E+04  0.4451328E+03 -0.1122103E+08 -0.4878452E+08  0.2547158E+05 -0.5946225E+04 -0.1610024E+06 -0.4532058E+05
  0.1314286E+01 -0.6670728E+02 -0.2869862E+03  0.8069788E+07  0.2892291E+07  0.2342887E+04  0.3582039E+03 -0.1978870E+08 -0.2944435E+08  0.3173645E+05 -0.2623919E+04 -0.1609785E+06 -0.5398678E+05
  0.1374490E+01  0.4734077E+03  0.5460443E+02  0.9625315E+07  0.2696536E+07  0.2366918E+04  0.2708644E+03 -0.3931045E+08 -0.2531333E+08  0.3674924E+05  0.3759538E+04 -0.1535328E+06 -0.5179013E+05
  0.1434694E+01 -0.5868057E+03  0.2340154E+04  0.9650828E+07  0.5594662E+07  0.2334490E+04  0.1514669E+03 -0.4222270E+08 -0.5854842E+08  0.2586868E+05  0.2951105E+05 -0.1602725E+06 -0.4105506E+05
  0.1494898E+01 -0.1359827E+04 -0.2815530E+03  0.7906793E+07  0.5185706E+07  0.2408090E+04 -0.7314143E+02 -0.2235667E+08 -0.5705828E+08  0.1279446E+05  0.3189079E+04 -0.1518563E+06 -0.4500428E+05
  0.1555102E+01 -0.6875116E+03 -0.9622337E+03  0.7845182E+07  0.3941671E+07  0.2587188E+04 -0.1769642E+03 -0.2113072E+08 -0.4329295E+08  0.1894271E+05 -0.9504978E+04 -0.1563091E+06 -0.3099909E+05
  0.1615306E+01 -0.1116687E+03 -0.3119228E+03  0.8047858E+07  0.3733568E+07  0.2673436E+04 -0.9196994E+02 -0.2345860E+08 -0.4181118E+08  0.2883571E+05 -0.7138540E+04 -0.1586743E+06 -0.2337690E+05
  0.1675510E+01 -0.1633763E+04 -0.8888047E+03  0.7537008E+07  0.3651933E+07  0.2714883E+04  0.1541546E+03 -0.1693176E+08 -0.4225304E+08  0.1446753E+05 -0.9035644E+04 -0.1683191E+06 -0.2662870E+05
  0.1735714E+01  0.3700732E+02 -0.1895561E+04  0.7732849E+07  0.1992371E+07  0.2556765E+04  0.7117542E+02 -0.1844113E+08 -0.2249294E+08  0.3107149E+05 -0.1553405E+05 -0.1694549E+06 -0.3097059E+05
  0.1795918E+01  0.3884551E+03 -0.1536954E+04  0.8283562E+07  0.1699944E+07  0.2582276E+04 -0.8047787E+02 -0.2489599E+08 -0.1900748E+08  0.3385062E+05 -0.1453012E+05 -0.1648831E+06 -0.3229883E+05
  0.1856122E+01  0.1147992E+04  0.2916401E+04  0.8796842E+07  0.2137977E+07  0.2641519E+04 -0.2560186E+03 -0.3083371E+08 -0.2458327E+08  0.4394298E+05  0.4133313E+05 -0.1665611E+06 -0.4222887E+05
  0.1916327E+01 -0.1797221E+04 -0.6092814E+04  0.8300008E+07  0.3155038E+07  0.2780347E+04 -0.2443029E+03 -0.2480626E+08 -0.3698656E+08  0.9685977E+03 -0.6937962E+05 -0.1263767E+06  0.6125986E+05
  0.1976531E+01  0.1202200E+04 -0.2202841E+04  0.8125436E+07  0.2009685E+07  0.2765018E+04 -0.6725056E+02 -0.2219269E+08 -0.2374013E+08  0.4534260E+05 -0.3739619E+05 -0.1363012E+06 -0.8906447E+04
  0.2036735E+01 -0.3285164E+03  0.2403743E+03  0.8329930E+07  0.1694445E+07  0.2760756E+04 -0.2783868E+02 -0.2456624E+08 -0.2025461E+08  0.2723897E+05  0.1786041E+04 -0.1715211E+06 -0.4440300E+04
  0.2096939E+01 -0.1675932E+04 -0.3536884E+04  0.8352389E+07  0.1582246E+07  0.2704872E+04 -0.4055355E+02 -0.2455753E+08 -0.1921171E+08  0.8201574E+04 -0.4475782E+05 -0.1748079E+06 -0.4435349E+05
  0.2157143E+01  0.2535359E+03 -0.3033070E+04  0.8524739E+07  0.1109606E+07  0.2814602E+04 -0.3765606E+03 -0.2647591E+08 -0.1340792E+08  0.3263577E+05 -0.3792712E+05 -0.1722264E+06  0.4934517E+03
  0.2217347E+01  0.1059431E+04  0.1046010E+04  0.8763906E+07  0.1161642E+07  0.2667473E+04  0.4390567E+02 -0.2930200E+08 -0.1429903E+08  0.4241261E+05  0.1456364E+05 -0.1760887E+06 -0.9726354E+04
  0.2277551E+01 -0.4936785E+04 -0.4190609E+04  0.8670808E+07  0.1869893E+07  0.2687947E+04 -0.2298908E+03 -0.2789975E+08 -0.2348550E+08 -0.4111092E+05 -0.7063591E+05 -0.1697350E+06 -0.3933074E+05
  0.2337755E+01 -0.8555562E+03 -0.2515844E+04  0.8542876E+07  0.9562355E+06  0.2782405E+04 -0.1549217E+03 -0.2611207E+08 -0.1205250E+08  0.2388950E+05 -0.4836545E+05 -0.1918121E+06 -0.4043688E+04
  0.2397959E+01 -0.2766238E+04 -0.7422312E+04  0.8688424E+07  0.7521098E+06  0.2767811E+04 -0.5017132E+01 -0.2778202E+08 -0.9808253E+07 -0.1224758E+04 -0.1190916E+06 -0.1814041E+06 -0.8178484E+05
  0.2458163E+01 -0.2441846E+04  0.8186605E+04  0.9088764E+07 -0.3501981E+05  0.2954372E+04 -0.1045709E+04 -0.3199681E+08 -0.1087206E+06  0.3399361E+05  0.5494695E+05 -0.9046862E+05  0.3209708E+06
  0.2518367E+01 -0.1168142E+04 -0.2511789E+04  0.8967553E+07  0.9044157E+06  0.2669234E+04 -0.6732339E+03 -0.3102057E+08 -0.1115497E+08  0.1732801E+05 -0.1233677E+04 -0.1331132E+06  0.5561703E+05
  0.2578571E+01  0.2435830E+04 -0.3546540E+04  0.9064821E+07  0.1178675E+07  0.2641783E+04 -0.8273473E+03 -0.3216778E+08 -0.1522801E+08  0.5908030E+05  0.1886082E+04 -0.1925403E+06  0.1908545E+05
  0.2638775E+01  0.2585411E+04 -0.5098662E+04  0.8835939E+07  0.7772736E+06  0.2981842E+04 -0.9172903E+03 -0.2897947E+08 -0.1008241E+08  0.6516819E+05 -0.4838892E+05 -0.1566773E+06 -0.1065698E+05
  0.2698980E+01  0.2800234E+04 -0.6534632E+04  0.8990798E+07  0.5746351E+06  0.3060984E+04 -0.1170430E+04 -0.3085463E+08 -0.7675952E+07  0.5446457E+05 -0.5181944E+05 -0.1723754E+06  0.1238699E+05
  0.2759184E+01 -0.5745117E+03 -0.7693646E+04  0.9020947E+07  0.6135027E+06  0.3483493E+04 -0.1202125E+04 -0.3096463E+08 -0.8288801E+07  0.2938953E+05 -0.1192501E+06 -0.1723129E+06 -0.3273913E+05
  0.2819388E+01  0.5208027E+04 -0.1173901E+05  0.9110345E+07  0.5947277E+06  0.3138813E+04  0.8089460E+03 -0.3213021E+08 -0.7308667E+07  0.8180911E+05 -0.1328035E+06 -0.2023296E+06  0.4347946E+05
  0.2879592E+01  0.1274181E+04 -0.5802356E+04  0.9103456E+07  0.9447916E+06  0.2914003E+04  0.3261298E+03 -0.3212545E+08 -0.1183172E+08  0.5003429E+05 -0.7981027E+05 -0.1498984E+06  0.2817741E+04
  0.2939796E+01  0.2809807E+04  0.1443351E+04  0.9058403E+07  0.4922984E+06  0.2888152E+04  0.3404639E+03 -0.3140009E+08 -0.6481664E+07  0.6322933E+05  0.5836574E+04 -0.1876423E+06 -0.6324684E+05
  0.3000000E+01  0.9912256E+02  0.2425773E+03  0.9135460E+07  0.5092872E+06  0.2839067E+04  0.4557670E+03 -0.3240649E+08 -0.6535362E+07  0.2575571E+05  0.6795623E+04 -0.1894092E+06  0.1253445E+05
Zone t="Motion of body    1 in DoF   3",I=    50,F=POINT
  0.5000000E-01  0.6788596E+04  0.1500244E-01 -0.5595385E+04  0.2841187E-01  0.2721473E+08  0.1278199E+05  0.1929683E+05 -0.3942383E+00 -0.3355765E+05  0.1026855E+01  0.7728948E+05 -0.1945898E+01
  0.1102041E+00  0.6883350E+04  0.4237920E+00 -0.5633357E+04  0.2298385E+00  0.2710906E+08  0.2611709E+05  0.1904537E+05  0.2818222E+01 -0.3482043E+05  0.2364104E+02  0.7771381E+05 -0.9756936E+01
  0.1704082E+00  0.7050603E+04  0.2726510E+01 -0.5698650E+04  0.4080269E+00  0.2710231E+08  0.3359416E+05  0.1885175E+05  0.1343038E+02 -0.3669713E+05  0.1000015E+03  0.7863223E+05 -0.3134378E+02
  0.2306122E+00  0.7359090E+04  0.1418579E+02 -0.5820223E+04 -0.1500444E+00  0.2718434E+08  0.2886491E+05  0.1844888E+05  0.5089459E+02 -0.3886988E+05  0.3413737E+03  0.7963652E+05 -0.7421661E+02
  0.2908163E+00  0.7860051E+04  0.6479361E+02 -0.6022463E+04 -0.1061707E+02  0.2743831E+08  0.8660853E+04  0.1789688E+05  0.1751519E+03 -0.4328429E+05  0.9869104E+03  0.8201831E+05 -0.1151008E+03
  0.3510204E+00  0.8552086E+04  0.2458424E+03 -0.6323025E+04 -0.5922316E+02  0.2796530E+08  0.8368118E+04  0.1634649E+05  0.5431265E+03 -0.5214391E+05  0.2319584E+04  0.8568453E+05  0.1801414E+03
  0.4112245E+00  0.9269066E+04  0.7350034E+03 -0.6682929E+04 -0.2108088E+03  0.2879243E+08  0.1773100E+06  0.1317874E+05  0.1176292E+04 -0.7039306E+05  0.3752626E+04  0.9153734E+05  0.1569149E+04
  0.4714286E+00  0.9487661E+04  0.1733181E+04 -0.6952281E+04 -0.5538036E+03  0.2956211E+08  0.7596234E+06  0.7199297E+04  0.1373328E+04 -0.9666049E+05  0.1634080E+04  0.9679947E+05  0.5415388E+04
  0.5316327E+00  0.8386739E+04  0.3165312E+04 -0.6819961E+04 -0.1125812E+04  0.2948516E+08  0.1870235E+07 -0.1995338E+04 -0.9124052E+03 -0.1325367E+06 -0.1271654E+05  0.9799572E+05  0.1318334E+05
  0.5918368E+00  0.5659218E+04  0.4377690E+04 -0.6037519E+04 -0.1739150E+04  0.2800713E+08  0.3058954E+07 -0.1095758E+05 -0.9054485E+04 -0.1600815E+06 -0.4838309E+05  0.8935606E+05  0.2316096E+05
  0.6520408E+00  0.2210753E+04  0.4424455E+04 -0.4850365E+04 -0.2016567E+04  0.2590289E+08  0.3578842E+07 -0.1093208E+05 -0.2485182E+05 -0.1539076E+06 -0.1075605E+06  0.7344577E+05  0.2975122E+05
  0.7122449E+00 -0.1938682E+03  0.2605236E+04 -0.3920482E+04 -0.1690444E+04  0.2434776E+08  0.3360243E+07  0.7148235E+04 -0.4573082E+05 -0.8990713E+05 -0.1838439E+06  0.5778394E+05  0.2876136E+05
  0.7724490E+00  0.9864705E+03 -0.3695578E+03 -0.4037498E+04 -0.1023144E+04  0.2358119E+08  0.2825992E+07  0.4724755E+05 -0.5584546E+05  0.4900772E+05 -0.2261904E+06  0.5231814E+05  0.2199562E+05
  0.8326531E+00  0.4722571E+04 -0.9935070E+03 -0.4862467E+04 -0.9820231E+03  0.2334696E+08  0.2189826E+07  0.7999659E+05 -0.3946320E+05  0.1615919E+06 -0.1783611E+06  0.5869501E+05  0.1669624E+05
  0.8928571E+00  0.6444985E+04  0.6403896E+03 -0.5242416E+04 -0.1520720E+04  0.2371974E+08  0.1491341E+07  0.8710912E+05 -0.1470522E+05  0.1838192E+06 -0.1109530E+06  0.7236031E+05  0.2325587E+05
  0.9530612E+00  0.6904681E+04  0.2039872E+04 -0.5462218E+04 -0.2355489E+04  0.2491119E+08  0.1850262E+07  0.8385423E+05  0.7362403E+04  0.1927687E+06 -0.7005015E+05  0.7000762E+05  0.6023874E+05
  0.1013265E+01  0.6899931E+04  0.4910599E+04 -0.4651916E+04 -0.3804752E+04  0.2390101E+08  0.2945824E+07  0.7113072E+05  0.3259617E+05  0.1896980E+06  0.8489081E+04  0.1545224E+05  0.6269728E+05
  0.1073469E+01  0.3931856E+04  0.7374125E+04 -0.2805849E+04 -0.4370249E+04  0.2313144E+08  0.2399952E+07  0.4238954E+05  0.5114585E+05  0.1306514E+06  0.7646908E+05 -0.8283273E+04  0.2874936E+05
  0.1133673E+01  0.1685212E+03  0.5794226E+04 -0.1197063E+04 -0.2772736E+04  0.2301929E+08  0.1805024E+07  0.9858282E+04  0.3507689E+05  0.5020187E+05  0.7538284E+05 -0.4189070E+04 -0.1071488E+05
  0.1193877E+01  0.2597132E+03  0.2501019E+04 -0.1767478E+04 -0.1048886E+04  0.2308850E+08  0.1372540E+07  0.1216346E+05  0.8016425E+04  0.3031548E+05  0.3047683E+05  0.1698027E+05 -0.3483241E+05
  0.1254082E+01  0.1231433E+04  0.1573842E+04 -0.2371535E+04 -0.6958099E+03  0.2319861E+08  0.1025383E+07  0.2029128E+05  0.1673199E+04  0.3364194E+05  0.1525550E+05  0.4048468E+05 -0.3994931E+05
  0.1314286E+01  0.1531011E+04  0.9705980E+03 -0.2681502E+04 -0.4400631E+03  0.2336033E+08  0.7345911E+06  0.2364298E+05  0.1742728E+03  0.3301730E+05  0.9296146E+04  0.5114127E+05 -0.2009642E+05
  0.1374490E+01  0.2227809E+04  0.3045139E+03 -0.3137495E+04 -0.3266881E+03  0.2351083E+08  0.5199589E+06  0.2806007E+05 -0.1594546E+03  0.3503917E+05  0.3897309E+04  0.4265420E+05 -0.1517866E+05
  0.1434694E+01  0.2908915E+04  0.7563818E+03 -0.3200348E+04 -0.9529281E+03  0.2366224E+08  0.3580456E+06  0.2830914E+05  0.8092489E+04  0.3811402E+05  0.9381992E+04  0.4011193E+05 -0.2931873E+05
  0.1494898E+01  0.2740060E+04  0.1220297E+04 -0.2855417E+04 -0.6493592E+03  0.2380390E+08  0.2372136E+06  0.2311554E+05  0.6518409E+04  0.3236441E+05  0.1461106E+05  0.5070652E+05 -0.4171232E+05
  0.1555102E+01  0.2635333E+04  0.9982407E+03 -0.2964275E+04 -0.2554223E+03  0.2392050E+08  0.1635928E+06  0.2262979E+05  0.2107683E+04  0.2867695E+05  0.1285715E+05  0.5422611E+05 -0.2502574E+05
  0.1615306E+01  0.2687273E+04  0.8107914E+03 -0.3130659E+04  0.9635825E+01  0.2401785E+08  0.1022479E+06  0.2389304E+05 -0.1093544E+04  0.2581120E+05  0.1142755E+05  0.4884519E+05 -0.3245756E+05
  0.1675510E+01  0.2713129E+04  0.7385737E+03 -0.3338359E+04  0.1339489E+03  0.2410812E+08  0.6093486E+05  0.2558476E+05 -0.2541975E+04  0.2370360E+05  0.9897007E+04  0.5320983E+05 -0.5377260E+05
  0.1735714E+01  0.2778412E+04  0.4250781E+03 -0.3483440E+04  0.4248056E+02  0.2418883E+08  0.2628770E+05  0.2694380E+05 -0.9757175E+03  0.2237866E+05  0.5592559E+04  0.7187966E+05 -0.4997498E+05
  0.1795918E+01  0.2882627E+04  0.1839965E+03 -0.3524920E+04 -0.3993338E+02  0.2424867E+08  0.1962804E+05  0.2671558E+05 -0.2819017E+02  0.2226586E+05  0.2986007E+04  0.6840945E+05 -0.2451821E+05
  0.1856122E+01  0.3153985E+04  0.9252058E+02 -0.3508817E+04 -0.5782869E+02  0.2430282E+08  0.1415081E+05  0.2614093E+05  0.3404558E+03  0.2395866E+05  0.1530184E+04  0.6018260E+05 -0.3603819E+05
  0.1916327E+01  0.3161538E+04  0.4001372E+03 -0.3632515E+04  0.8725150E+02  0.2435209E+08  0.7008751E+04  0.2705935E+05 -0.1052705E+04  0.2291318E+05  0.5112749E+04  0.7205305E+05 -0.5500891E+05
  0.1976531E+01  0.3213178E+04  0.3742900E+03 -0.3670113E+04  0.2909669E+02  0.2439038E+08  0.4016952E+04  0.2728739E+05 -0.5072282E+03  0.2246779E+05  0.3646435E+04  0.7287740E+05 -0.2837864E+05
  0.2036735E+01  0.3218429E+04  0.3006146E+03 -0.3670365E+04 -0.7461802E+02  0.2442564E+08  0.3077045E+04  0.2687124E+05  0.8558843E+03  0.2169072E+05  0.3431961E+04  0.6876841E+05 -0.2487516E+05
  0.2096939E+01  0.3242533E+04  0.2200567E+03 -0.3647613E+04 -0.4894726E+02  0.2445904E+08  0.1474751E+04  0.2628893E+05  0.2128929E+03  0.2114547E+05  0.2326072E+04  0.7197941E+05 -0.3433268E+05
  0.2157143E+01  0.3333313E+04  0.2938629E+03 -0.3709756E+04  0.2465246E+02  0.2449284E+08 -0.6622585E+03  0.2708708E+05 -0.1388189E+04  0.2169976E+05  0.2880120E+04  0.7652614E+05 -0.1644958E+05
  0.2217347E+01  0.3390628E+04  0.6591398E+02 -0.3718525E+04 -0.1226855E+02  0.2451636E+08  0.1727332E+04  0.2630837E+05  0.3951366E+03  0.2133263E+05  0.6074026E+03  0.6995736E+05 -0.1939797E+05
  0.2277551E+01  0.3409229E+04  0.2170572E+03 -0.3776362E+04  0.3719613E+02  0.2453920E+08  0.1312353E+04  0.2700920E+05 -0.3238758E+03  0.2099650E+05  0.2687559E+04  0.7305662E+05 -0.3027750E+05
  0.2337755E+01  0.3388980E+04  0.1911286E+03 -0.3763770E+04 -0.5862183E+02  0.2455958E+08  0.6622318E+03  0.2667967E+05  0.7802431E+03  0.2026149E+05  0.2273265E+04  0.7647712E+05 -0.1333592E+05
  0.2397959E+01  0.3400812E+04  0.7285217E+02 -0.3773573E+04  0.2866465E+02  0.2457749E+08  0.8589884E+03  0.2660027E+05 -0.2393019E+03  0.1979725E+05  0.1080780E+04  0.7220330E+05 -0.1328611E+05
  0.2458163E+01  0.3485338E+04 -0.4531731E+02 -0.3753505E+04 -0.5664283E+02  0.2459054E+08  0.3329435E+03  0.2597721E+05  0.6985388E+03  0.2041042E+05 -0.4650538E+03  0.6215462E+05  0.4688793E+04
  0.2518367E+01  0.3484392E+04  0.1217509E+02 -0.3855417E+04  0.2285006E+01  0.2459821E+08  0.8291866E+03  0.2733262E+05 -0.1695000E+03  0.1993020E+05  0.2088232E+03  0.6996298E+05 -0.1792643E+05
  0.2578571E+01  0.3530288E+04  0.1320164E+03 -0.3894306E+04 -0.5879237E+02  0.2460784E+08  0.3137897E+03  0.2771408E+05  0.8475952E+03  0.2010929E+05  0.1672233E+04  0.6858078E+05 -0.2262457E+05
  0.2638775E+01  0.3502659E+04  0.1444747E+03 -0.3782233E+04 -0.1101681E+03  0.2461650E+08  0.2827594E+03  0.2610698E+05  0.1505718E+04  0.1946862E+05  0.1910498E+04  0.7480488E+05 -0.1194313E+05
  0.2698980E+01  0.3540880E+04  0.7679548E+02 -0.3796306E+04  0.8217141E+01  0.2462513E+08  0.3290090E+03  0.2624498E+05 -0.5007391E+02  0.1939235E+05  0.1131881E+04  0.6986191E+05 -0.1206869E+05
  0.2759184E+01  0.3529898E+04  0.1466880E+02 -0.3926517E+04  0.7432773E+02  0.2463289E+08  0.1473617E+03  0.2761916E+05 -0.1221334E+04  0.1897781E+05  0.3499095E+03  0.7445769E+05 -0.1468730E+05
  0.2819388E+01  0.3600971E+04  0.1000065E+02 -0.3897361E+04 -0.9766351E+02  0.2463803E+08  0.9220090E+02  0.2723121E+05  0.1254080E+04  0.1955335E+05  0.2908140E+02  0.6601428E+05 -0.8223610E+04
  0.2879592E+01  0.3607366E+04  0.1429941E+03 -0.3856938E+04 -0.2855715E+03  0.2464511E+08 -0.1152896E+03  0.2671696E+05  0.3753592E+04  0.1951594E+05  0.1977350E+04  0.7279647E+05 -0.2167419E+05
  0.2939796E+01  0.3560004E+04  0.9715298E+02 -0.3824197E+04  0.9505434E+01  0.2465320E+08 -0.4801276E+03  0.2605086E+05  0.2488607E+03  0.1857645E+05  0.1292058E+04  0.6913169E+05 -0.1033443E+05
  0.3000000E+01  0.3607704E+04  0.5297249E+02 -0.3877512E+04  0.8190931E+02  0.2466209E+08  0.5036398E+03  0.2664980E+05 -0.1597747E+04  0.1868096E+05  0.8023857E+03  0.7600555E+05 -0.2767433E+04
Zone t="Motion of body    1 in DoF   4",I=    50,F=POINT
  0.5000000E-01 -0.3194956E+05 -0.1752749E-01 -0.6322750E+08 -0.8084745E+03  0.2226748E+05  0.3168437E+02  0.1157861E+11  0.1383773E+05 -0.1042027E+07  0.9744324E+00  0.5258250E+05  0.2799835E+01